LAMMPS 'data.' input file 

     6 atoms
     4 bonds
     4 angles

     3 atom types
     2 bond types
     2 angle types

    -4.2     4.2      xlo xhi
    -4.2     4.2      ylo yhi
    -32   32      zlo zhi

Atoms # atom-ID atom-type x y z q mux muy myz molecule-ID diameter density

      1    1     0.0000     0.0000    19.3721   0.00  -1.22474   1.22474   1.00000      1    8.00   0.99223
      2    2    -1.1948     0.6415    12.2144   0.00   0.00000   0.00000   0.00000      1    7.50   1.17704 
      3    3    -1.0950     0.8699     4.7857   0.00   0.00000   0.00000   0.00000      1    7.50   1.17704 
      4    1     1.8910     0.8956   -19.1144   0.00   1.22474   1.22474  -1.00000      2    8.00   0.99223 
      5    2     2.4937     0.3872   -12.2322   0.00   0.00000   0.00000   0.00000      2    7.50   1.17704 
      6    3     2.5332     0.1686    -4.7819   0.00   0.00000   0.00000   0.00000      2    7.50   1.17704 

Bonds # bond-ID bond-type atom_1 atom_2

      1    1       1       2
      2    2       2       3
      3    1       4       5
      4    2       5       6

Angles # angle-ID angle-type atom_1 atom_2 atom_3

      1    1       1       2       3
      2    1       4       5       6
      3    2       1       2       2 
      4    2       4       5       5
